VO2                                     
           1
    11.243244    0.000000   -0.031195
     0.000000    9.214522    0.000000
    -5.700370    0.000000    9.248724
   V    O 
  32  64
Direct configuration=     1
   0.11731242  0.26095717  0.26405804
   0.11723571  0.26147626  0.76433962
   0.11761853  0.76151290  0.26489279
   0.11732656  0.76156863  0.76428428
   0.61726289  0.26171090  0.26420665
   0.61742350  0.26147390  0.76436269
   0.61721053  0.76170814  0.26464402
   0.61770944  0.76115894  0.76422781
   0.11753398  0.48840925  0.01447864
   0.11773582  0.48849979  0.51453932
   0.11734109  0.98864110  0.01445935
   0.11726715  0.98846791  0.51438703
   0.61771700  0.48844563  0.01471189
   0.61727323  0.48884282  0.51431403
   0.61738941  0.98866062  0.01457175
   0.61728096  0.98859944  0.51433996
   0.38243839  0.01138853  0.48561539
   0.38251343  0.01106328  0.98536461
   0.38279609  0.51122308  0.48567517
   0.38229329  0.51121307  0.98527889
   0.88263435  0.01162598  0.48553889
   0.88204192  0.01113321  0.98534074
   0.88277886  0.51098128  0.48568877
   0.88251332  0.51141640  0.98535712
   0.38268422  0.23853081  0.23583376
   0.38265069  0.23877617  0.73544017
   0.38266305  0.73877975  0.23535959
   0.38236125  0.73920026  0.73526654
   0.88242263  0.23861723  0.23555059
   0.88250792  0.23839409  0.73517568
   0.88243097  0.73830905  0.23547662
   0.88250547  0.73852254  0.73557572
   0.05360335  0.14189038  0.35690379
   0.05401953  0.14217498  0.85735832
   0.05401147  0.64171298  0.35719513
   0.05382094  0.64272301  0.85680806
   0.55411761  0.14199643  0.35723242
   0.55405228  0.14168666  0.85736778
   0.55386497  0.64228947  0.35751463
   0.55379102  0.64215839  0.85663456
   0.05397939  0.10838259  0.10715773
   0.05405003  0.10844783  0.60725315
   0.05376265  0.60773571  0.10716392
   0.05390169  0.60829601  0.60703388
   0.55363474  0.10780753  0.10698237
   0.55400649  0.10831915  0.60714323
   0.55377897  0.60765739  0.10703278
   0.55346049  0.60773756  0.60696091
   0.44683165  0.39217834  0.39390942
   0.44662763  0.39223764  0.89270393
   0.44575818  0.89189299  0.39326208
   0.44608699  0.89150746  0.89279699
   0.94610182  0.39254869  0.39305361
   0.94669505  0.39196271  0.89253283
   0.94654500  0.89147698  0.39320045
   0.94602852  0.89220613  0.89335270
   0.44650564  0.35775428  0.14287469
   0.44648713  0.35735899  0.64328434
   0.44632451  0.85753755  0.14334745
   0.44563252  0.85811434  0.64323510
   0.94606835  0.35747116  0.14292603
   0.94630157  0.35828357  0.64347010
   0.94580048  0.85792242  0.14275752
   0.94621824  0.85774989  0.64250500
   0.20025263  0.39984725  0.40183396
   0.19988838  0.40063710  0.90167642
   0.20061389  0.90029589  0.40227807
   0.20005040  0.90047777  0.90171103
   0.70008526  0.40000036  0.40164671
   0.70033709  0.40051840  0.90181892
   0.70028907  0.89951325  0.40164349
   0.69960870  0.89985691  0.90189782
   0.20023579  0.34954172  0.15168342
   0.19974393  0.35046736  0.65201501
   0.19958237  0.84983167  0.15171738
   0.20013567  0.84988659  0.65163363
   0.70015247  0.35011123  0.15237528
   0.69950780  0.34932725  0.65120856
   0.70021795  0.84993040  0.15143289
   0.70005483  0.84941042  0.65181246
   0.30035404  0.15085569  0.34863637
   0.30060170  0.15052377  0.84878854
   0.29948753  0.65031833  0.34788079
   0.29956033  0.65008185  0.84810398
   0.80002207  0.15073804  0.34840508
   0.79980562  0.15023862  0.84814160
   0.80007461  0.65024397  0.34898080
   0.79999986  0.65074532  0.84815103
   0.30037335  0.09976007  0.09871202
   0.30001150  0.09943403  0.59819280
   0.30005908  0.60039109  0.09835147
   0.29979433  0.59954772  0.59822509
   0.80014717  0.09990898  0.09844524
   0.80039152  0.10058519  0.59839031
   0.80011530  0.60004147  0.09817886
   0.80016155  0.59991596  0.59830980
Direct configuration=     2
   0.11716122  0.26054784  0.26364037
   0.11700893  0.26158479  0.76420318
   0.11777235  0.76165803  0.26530740
   0.11718928  0.76176950  0.76409105
   0.61706296  0.26205334  0.26393765
   0.61738490  0.26157915  0.76425045
   0.61695955  0.76204586  0.26481122
   0.61795366  0.76095154  0.76397914
   0.11760406  0.48818624  0.01448043
   0.11800764  0.48836866  0.51460182
   0.11721865  0.98865012  0.01444239
   0.11707097  0.98830431  0.51429728
   0.61796926  0.48825981  0.01494565
   0.61708499  0.48905290  0.51415237
   0.61731465  0.98868770  0.01466548
   0.61709823  0.98856619  0.51420351
   0.38234146  0.01141126  0.48570874
   0.38248999  0.01076034  0.98520594
   0.38305279  0.51108076  0.48582599
   0.38205111  0.51105989  0.98503437
   0.88273297  0.01188434  0.48555446
   0.88154904  0.01090115  0.98516010
   0.88302176  0.51059799  0.48585548
   0.88249132  0.51146481  0.98519099
   0.38283203  0.23842841  0.23614386
   0.38276514  0.23891699  0.73535928
   0.38278844  0.73892513  0.23519819
   0.38218725  0.73976462  0.73501141
   0.88230974  0.23860138  0.23557893
   0.88247982  0.23815635  0.73483081
   0.88232637  0.73798593  0.23543135
   0.88247450  0.73841297  0.73562706
   0.05352229  0.14179908  0.35686706
   0.05435265  0.14236926  0.85777348
   0.05433491  0.64144795  0.35744518
   0.05395879  0.64345920  0.85668064
   0.55455003  0.14201040  0.35752343
   0.55441618  0.14139790  0.85778796
   0.55404319  0.64259759  0.35808493
   0.55389484  0.64233450  0.85632887
   0.05426910  0.10874095  0.10736941
   0.05441333  0.10887261  0.60756163
   0.05383988  0.60745235  0.10738443
   0.05411672  0.60857068  0.60712379
   0.55358543  0.10759692  0.10702505
   0.55432407  0.10861394  0.60734167
   0.55387309  0.60729801  0.10712426
   0.55323829  0.60745937  0.60698323
   0.44734248  0.39236895  0.39475027
   0.44693829  0.39249303  0.89234996
   0.44520492  0.89180537  0.39346503
   0.44586065  0.89103686  0.89253952
   0.94588921  0.39310904  0.39304424
   0.94707223  0.39194873  0.89201148
   0.94677403  0.89097731  0.39334357
   0.94574278  0.89242765  0.89364197
   0.44669175  0.35749240  0.14268966
   0.44665599  0.35670761  0.64350289
   0.44633146  0.85706553  0.14362874
   0.44495589  0.85821303  0.64340841
   0.94582130  0.35692903  0.14279066
   0.94628815  0.35855037  0.64387822
   0.94529077  0.85782443  0.14246070
   0.94611974  0.85748440  0.64195316
   0.20055690  0.39954484  0.40199384
   0.19982943  0.40112403  0.90168085
   0.20127605  0.90044314  0.40288086
   0.20015295  0.90080684  0.90174961
   0.70022237  0.39985345  0.40162197
   0.70072469  0.40088610  0.90196385
   0.70063094  0.89888568  0.40161836
   0.69927180  0.89956682  0.90212150
   0.20052365  0.34923542  0.15169368
   0.19954464  0.35107697  0.65235967
   0.19921896  0.84981305  0.15176184
   0.20032309  0.84992236  0.65159490
   0.70035660  0.35037028  0.15307476
   0.69907005  0.34880639  0.65074616
   0.70048735  0.85000741  0.15119640
   0.70015988  0.84897545  0.65194753
   0.30065656  0.15155836  0.34894667
   0.30114902  0.15089843  0.84924824
   0.29892699  0.65048348  0.34743908
   0.29907120  0.65001405  0.84788274
   0.79999327  0.15132231  0.34848461
   0.79956076  0.15032716  0.84795740
   0.80009631  0.65033932  0.34963031
   0.79994936  0.65133763  0.84797691
   0.30069437  0.09966783  0.09909654
   0.29997111  0.09902151  0.59806063
   0.30006458  0.60092668  0.09837342
   0.29953960  0.59924608  0.59812446
   0.80023954  0.09996635  0.09856229
   0.80072607  0.10130931  0.59844723
   0.80017708  0.60022805  0.09802898
   0.80027006  0.59997975  0.59829391
Direct configuration=     3
   0.11701064  0.26014161  0.26322696
   0.11678496  0.26169406  0.76407033
   0.11792473  0.76180383  0.26572148
   0.11705217  0.76197110  0.76389852
   0.61686529  0.26239504  0.26367303
   0.61734998  0.26168329  0.76414406
   0.61671342  0.76237895  0.26498057
   0.61819543  0.76074759  0.76373324
   0.11767422  0.48796253  0.01448427
   0.11827939  0.48823945  0.51466638
   0.11709705  0.98865881  0.01442852
   0.11687602  0.98814152  0.51420970
   0.61822001  0.48807490  0.01517897
   0.61690171  0.48926141  0.51399503
   0.61723948  0.98871158  0.01475896
   0.61691592  0.98853143  0.51406987
   0.38224594  0.01143857  0.48580227
   0.38246495  0.01046109  0.98504500
   0.38330284  0.51094372  0.48597244
   0.38181003  0.51091035  0.98478723
   0.88283223  0.01214365  0.48556765
   0.88105844  0.01067460  0.98498083
   0.88326482  0.51022163  0.48602236
   0.88247075  0.51151345  0.98502262
   0.38297914  0.23832342  0.23645097
   0.38287920  0.23905098  0.73528051
   0.38291060  0.73906563  0.23503906
   0.38201472  0.74032110  0.73475717
   0.88219793  0.23858320  0.23560702
   0.88245183  0.23791883  0.73448915
   0.88222269  0.73766225  0.23538653
   0.88244273  0.73830300  0.73567388
   0.05343819  0.14171040  0.35682904
   0.05467876  0.14256813  0.85818216
   0.05464819  0.64119275  0.35768500
   0.05409618  0.64418791  0.85656192
   0.55497791  0.14202544  0.35781142
   0.55476927  0.14112404  0.85819306
   0.55421369  0.64290901  0.35864651
   0.55399008  0.64251209  0.85602237
   0.05454558  0.10908496  0.10756907
   0.05476903  0.10928527  0.60786067
   0.05391201  0.60716466  0.10759795
   0.05432425  0.60883662  0.60720568
   0.55353378  0.10738380  0.10706815
   0.55462976  0.10889399  0.60753053
   0.55396325  0.60693881  0.10721291
   0.55301646  0.60718345  0.60700818
   0.44784594  0.39255018  0.39557428
   0.44724932  0.39275019  0.89200036
   0.44466283  0.89172257  0.39366986
   0.44564180  0.89057622  0.89229324
   0.94568203  0.39365905  0.39302909
   0.94744803  0.39194735  0.89150180
   0.94700541  0.89049034  0.39349219
   0.94546272  0.89264622  0.89392469
   0.44687302  0.35723220  0.14250524
   0.44682257  0.35606946  0.64371004
   0.44633755  0.85660847  0.14389781
   0.44429507  0.85831465  0.64357820
   0.94557772  0.35639412  0.14265280
   0.94627903  0.35881768  0.64428267
   0.94479466  0.85771973  0.14217523
   0.94602203  0.85722212  0.64140770
   0.20085761  0.39923904  0.40214978
   0.19976886  0.40160651  0.90168538
   0.20192783  0.90058883  0.40347718
   0.20025282  0.90113427  0.90178730
   0.70035631  0.39970778  0.40159837
   0.70110639  0.40124829  0.90210487
   0.70097164  0.89827220  0.40160009
   0.69893670  0.89927845  0.90234099
   0.20080871  0.34893719  0.15170168
   0.19935179  0.35167551  0.65270767
   0.19885696  0.84979807  0.15180451
   0.20050705  0.84996070  0.65155545
   0.70055718  0.35062925  0.15376678
   0.69863421  0.34829347  0.65028581
   0.70075282  0.85008190  0.15096516
   0.70025855  0.84855366  0.65207209
   0.30096295  0.15225095  0.34926074
   0.30169462  0.15127064  0.84970628
   0.29837704  0.65063832  0.34700805
   0.29858998  0.64994272  0.84766698
   0.79996964  0.15189498  0.34856893
   0.79932186  0.15041136  0.84777745
   0.80011921  0.65043315  0.35027335
   0.79990508  0.65191983  0.84780838
   0.30101766  0.09957517  0.09948206
   0.29993381  0.09861996  0.59793438
   0.30006992  0.60145559  0.09839231
   0.29929363  0.59894980  0.59802825
   0.80032933  0.10002474  0.09867897
   0.80105363  0.10201552  0.59849312
   0.80023874  0.60040911  0.09787753
   0.80037948  0.60004346  0.59828259
Direct configuration=     4
   0.11686084  0.25973906  0.26281896
   0.11656509  0.26180376  0.76394202
   0.11807501  0.76194993  0.26613419
   0.11691525  0.76217312  0.76370619
   0.61667092  0.26273499  0.26341417
   0.61732055  0.26178506  0.76404554
   0.61647438  0.76270447  0.26515244
   0.61843369  0.76054793  0.76349066
   0.11774453  0.48773843  0.01449047
   0.11855111  0.48811373  0.51473326
   0.11697666  0.98866772  0.01441850
   0.11668281  0.98798064  0.51412458
   0.61846858  0.48789198  0.01541101
   0.61672573  0.48946848  0.51384337
   0.61716365  0.98873143  0.01485139
   0.61673405  0.98849520  0.51393956
   0.38215252  0.01147195  0.48589684
   0.38243760  0.01016651  0.98488139
   0.38354312  0.51081362  0.48611324
   0.38157055  0.51076540  0.98453686
   0.88293247  0.01240368  0.48557801
   0.88057092  0.01045529  0.98480417
   0.88350818  0.50985474  0.48619031
   0.88245236  0.51156174  0.98485168
   0.38312534  0.23821526  0.23675450
   0.38299272  0.23917564  0.73520564
   0.38302798  0.73919963  0.23488406
   0.38184429  0.74086677  0.73450499
   0.88208771  0.23856231  0.23563550
   0.88242409  0.23768247  0.73415306
   0.88212036  0.73733839  0.23534307
   0.88240980  0.73819312  0.73571472
   0.05335109  0.14162400  0.35679021
   0.05499608  0.14277232  0.85858241
   0.05494808  0.64095048  0.35791091
   0.05423444  0.64490433  0.85645711
   0.55540069  0.14204060  0.35809605
   0.55510809  0.14087046  0.85857722
   0.55437434  0.64322387  0.35919646
   0.55407420  0.64269048  0.85571564
   0.05480446  0.10940945  0.10775243
   0.05511515  0.10968156  0.60814698
   0.05397809  0.60687186  0.10780225
   0.05452229  0.60909120  0.60727684
   0.55348016  0.10716828  0.10711297
   0.55491956  0.10915386  0.60770654
   0.55404907  0.60658113  0.10729846
   0.55279677  0.60691224  0.60703829
   0.44833694  0.39271594  0.39637237
   0.44755949  0.39300868  0.89165608
   0.44413557  0.89164530  0.39387627
   0.44543245  0.89012873  0.89206233
   0.94548150  0.39419252  0.39300420
   0.94782039  0.39196304  0.89100804
   0.94723887  0.89002054  0.39364784
   0.94518954  0.89285904  0.89419671
   0.44704550  0.35697594  0.14232045
   0.44698428  0.35545243  0.64389904
   0.44634080  0.85617528  0.14414741
   0.44365599  0.85842243  0.64374151
   0.94533774  0.35587119  0.14251026
   0.94627482  0.35908736  0.64468070
   0.94431694  0.85760667  0.14190533
   0.94592398  0.85696604  0.64087046
   0.20115377  0.39892876  0.40230013
   0.19970644  0.40208300  0.90169013
   0.20256476  0.90073258  0.40406400
   0.20034926  0.90145982  0.90182365
   0.70048617  0.39956443  0.40157660
   0.70147999  0.40160288  0.90224018
   0.70131140  0.89768007  0.40159210
   0.69860470  0.89899306  0.90255432
   0.20109027  0.34865028  0.15170642
   0.19916885  0.35225745  0.65306083
   0.19849743  0.84978808  0.15184453
   0.20068649  0.85000234  0.65151501
   0.70075312  0.35088778  0.15444793
   0.69820173  0.34779167  0.64982850
   0.70101312  0.85015223  0.15074170
   0.70034856  0.84815061  0.65218130
   0.30127453  0.15292930  0.34958037
   0.30223726  0.15163976  0.85016196
   0.29784195  0.65077868  0.34659244
   0.29811975  0.64986663  0.84745921
   0.79995307  0.15245115  0.34866030
   0.79909117  0.15048963  0.84760368
   0.80014338  0.65052511  0.35090699
   0.79986943  0.65248776  0.84764799
   0.30134380  0.09948135  0.09986912
   0.29990044  0.09823407  0.59781678
   0.30007448  0.60197431  0.09840663
   0.29905999  0.59866085  0.59793838
   0.80041472  0.10008416  0.09879508
   0.80137029  0.10269464  0.59852223
   0.80029964  0.60058154  0.09772358
   0.80048974  0.60010657  0.59827800
Direct configuration=     5
   0.11671192  0.25934061  0.26241728
   0.11635044  0.26191361  0.76381912
   0.11822266  0.76209601  0.26654492
   0.11677849  0.76237536  0.76351354
   0.61648080  0.26307228  0.26316231
   0.61729836  0.26188330  0.76395679
   0.61624457  0.76301969  0.26532725
   0.61866753  0.76035322  0.76325185
   0.11781509  0.48751416  0.01449932
   0.11882296  0.48799290  0.51480270
   0.11685778  0.98867733  0.01441303
   0.11649181  0.98782271  0.51404215
   0.61871447  0.48771202  0.01564106
   0.61655931  0.48967435  0.51369863
   0.61708695  0.98874651  0.01494207
   0.61655255  0.98845755  0.51381292
   0.38206181  0.01151285  0.48599331
   0.38240723  0.00987745  0.98471474
   0.38377066  0.51069191  0.48624725
   0.38133304  0.51062590  0.98428256
   0.88303400  0.01266433  0.48558513
   0.88008692  0.01024468  0.98463119
   0.88375200  0.50949959  0.48636027
   0.88243688  0.51160916  0.98467783
   0.38327045  0.23810336  0.23705402
   0.38310556  0.23928864  0.73513634
   0.38313907  0.73932567  0.23473499
   0.38167641  0.74139898  0.73425589
   0.88197954  0.23853835  0.23566497
   0.88239676  0.23744816  0.73382477
   0.88201971  0.73701460  0.23530183
   0.88237535  0.73808383  0.73574819
   0.05326109  0.14153951  0.35675102
   0.05530301  0.14298257  0.85897252
   0.05523164  0.64072386  0.35811959
   0.05437485  0.64560413  0.85637114
   0.55581802  0.14205495  0.35837711
   0.55542960  0.14064203  0.85893521
   0.55452315  0.64354234  0.35973225
   0.55414484  0.64286910  0.85540914
   0.05504192  0.10970978  0.10791565
   0.05544999  0.11005766  0.60841764
   0.05403728  0.60657320  0.10799530
   0.05470910  0.60933212  0.60733486
   0.55342497  0.10695042  0.10716083
   0.55518988  0.10938854  0.60786684
   0.55413017  0.60622618  0.10738069
   0.55258098  0.60664803  0.60707607
   0.44881065  0.39286028  0.39713599
   0.44786771  0.39326817  0.89131787
   0.44362635  0.89157401  0.39408388
   0.44523437  0.88969724  0.89185062
   0.94528879  0.39470371  0.39296573
   0.94818740  0.39199987  0.89053390
   0.94747418  0.88957190  0.39381188
   0.94492424  0.89306351  0.89445412
   0.44720534  0.35672574  0.14213412
   0.44713868  0.35486394  0.64406337
   0.44633928  0.85577449  0.14437052
   0.44304416  0.85853974  0.64389538
   0.94510147  0.35536452  0.14236093
   0.94627612  0.35936128  0.64506975
   0.94386191  0.85748373  0.14165483
   0.94582448  0.85671894  0.64034299
   0.20144456  0.39861302  0.40244349
   0.19964191  0.40255215  0.90169519
   0.20318266  0.90087397  0.40463853
   0.20044149  0.90178331  0.90185815
   0.70061115  0.39942450  0.40155738
   0.70184341  0.40194799  0.90236805
   0.70165067  0.89711612  0.40159772
   0.69827697  0.89871181  0.90275969
   0.20136773  0.34837763  0.15170698
   0.19899901  0.35281775  0.65342095
   0.19814120  0.84978433  0.15188108
   0.20086042  0.85004794  0.65147333
   0.70094350  0.35114559  0.15511513
   0.69777392  0.34730391  0.64937504
   0.70126723  0.85021687  0.15052843
   0.70042788  0.84777130  0.65227074
   0.30159256  0.15358973  0.34990728
   0.30277592  0.15200533  0.85061474
   0.29732556  0.65090083  0.34619649
   0.29766327  0.64978464  0.84726173
   0.79994533  0.15298637  0.34876081
   0.79887078  0.15056053  0.84743781
   0.80016895  0.65061485  0.35152867
   0.79984470  0.65303771  0.84749807
   0.30167341  0.09938558  0.10025834
   0.29987174  0.09786818  0.59771038
   0.30007772  0.60247966  0.09841494
   0.29884200  0.59838095  0.59785658
   0.80049399  0.10014459  0.09891043
   0.80167235  0.10333791  0.59852886
   0.80035913  0.60074241  0.09756618
   0.80060081  0.60016858  0.59828222
